LAMMPS data file via write_data, version 28 Mar 2023, timestep = 0

1000 atoms
1 atom types

0 10 xlo xhi
0 10 ylo yhi
0 10 zlo zhi

Masses

1 1

Pair Coeffs # lj/cut

1 1 1

Atoms # atomic

1 1 0 0 0 0 0 0
2 1 1 0 0 0 0 0
3 1 2 0 0 0 0 0
4 1 3 0 0 0 0 0
5 1 4 0 0 0 0 0
6 1 0 1 0 0 0 0
7 1 1 1 0 0 0 0
8 1 2 1 0 0 0 0
9 1 3 1 0 0 0 0
10 1 4 1 0 0 0 0
11 1 0 2 0 0 0 0
12 1 1 2 0 0 0 0
13 1 2 2 0 0 0 0
14 1 3 2 0 0 0 0
15 1 4 2 0 0 0 0
16 1 0 3 0 0 0 0
17 1 1 3 0 0 0 0
18 1 2 3 0 0 0 0
19 1 3 3 0 0 0 0
20 1 4 3 0 0 0 0
21 1 0 4 0 0 0 0
22 1 1 4 0 0 0 0
23 1 2 4 0 0 0 0
24 1 3 4 0 0 0 0
25 1 4 4 0 0 0 0
26 1 0 0 1 0 0 0
27 1 1 0 1 0 0 0
28 1 2 0 1 0 0 0
29 1 3 0 1 0 0 0
30 1 4 0 1 0 0 0
31 1 0 1 1 0 0 0
32 1 1 1 1 0 0 0
33 1 2 1 1 0 0 0
34 1 3 1 1 0 0 0
35 1 4 1 1 0 0 0
36 1 0 2 1 0 0 0
37 1 1 2 1 0 0 0
38 1 2 2 1 0 0 0
39 1 3 2 1 0 0 0
40 1 4 2 1 0 0 0
41 1 0 3 1 0 0 0
42 1 1 3 1 0 0 0
43 1 2 3 1 0 0 0
44 1 3 3 1 0 0 0
45 1 4 3 1 0 0 0
46 1 0 4 1 0 0 0
47 1 1 4 1 0 0 0
48 1 2 4 1 0 0 0
49 1 3 4 1 0 0 0
50 1 4 4 1 0 0 0
51 1 0 0 2 0 0 0
52 1 1 0 2 0 0 0
53 1 2 0 2 0 0 0
54 1 3 0 2 0 0 0
55 1 4 0 2 0 0 0
56 1 0 1 2 0 0 0
57 1 1 1 2 0 0 0
58 1 2 1 2 0 0 0
59 1 3 1 2 0 0 0
60 1 4 1 2 0 0 0
61 1 0 2 2 0 0 0
62 1 1 2 2 0 0 0
63 1 2 2 2 0 0 0
64 1 3 2 2 0 0 0
65 1 4 2 2 0 0 0
66 1 0 3 2 0 0 0
67 1 1 3 2 0 0 0
68 1 2 3 2 0 0 0
69 1 3 3 2 0 0 0
70 1 4 3 2 0 0 0
71 1 0 4 2 0 0 0
72 1 1 4 2 0 0 0
73 1 2 4 2 0 0 0
74 1 3 4 2 0 0 0
75 1 4 4 2 0 0 0
76 1 0 0 3 0 0 0
77 1 1 0 3 0 0 0
78 1 2 0 3 0 0 0
79 1 3 0 3 0 0 0
80 1 4 0 3 0 0 0
81 1 0 1 3 0 0 0
82 1 1 1 3 0 0 0
83 1 2 1 3 0 0 0
84 1 3 1 3 0 0 0
85 1 4 1 3 0 0 0
86 1 0 2 3 0 0 0
87 1 1 2 3 0 0 0
88 1 2 2 3 0 0 0
89 1 3 2 3 0 0 0
90 1 4 2 3 0 0 0
91 1 0 3 3 0 0 0
92 1 1 3 3 0 0 0
93 1 2 3 3 0 0 0
94 1 3 3 3 0 0 0
95 1 4 3 3 0 0 0
96 1 0 4 3 0 0 0
97 1 1 4 3 0 0 0
98 1 2 4 3 0 0 0
99 1 3 4 3 0 0 0
100 1 4 4 3 0 0 0
101 1 0 0 4 0 0 0
102 1 1 0 4 0 0 0
103 1 2 0 4 0 0 0
104 1 3 0 4 0 0 0
105 1 4 0 4 0 0 0
106 1 0 1 4 0 0 0
107 1 1 1 4 0 0 0
108 1 2 1 4 0 0 0
109 1 3 1 4 0 0 0
110 1 4 1 4 0 0 0
111 1 0 2 4 0 0 0
112 1 1 2 4 0 0 0
113 1 2 2 4 0 0 0
114 1 3 2 4 0 0 0
115 1 4 2 4 0 0 0
116 1 0 3 4 0 0 0
117 1 1 3 4 0 0 0
118 1 2 3 4 0 0 0
119 1 3 3 4 0 0 0
120 1 4 3 4 0 0 0
121 1 0 4 4 0 0 0
122 1 1 4 4 0 0 0
123 1 2 4 4 0 0 0
124 1 3 4 4 0 0 0
125 1 4 4 4 0 0 0
126 1 0 0 5 0 0 0
127 1 1 0 5 0 0 0
128 1 2 0 5 0 0 0
129 1 3 0 5 0 0 0
130 1 4 0 5 0 0 0
131 1 0 1 5 0 0 0
132 1 1 1 5 0 0 0
133 1 2 1 5 0 0 0
134 1 3 1 5 0 0 0
135 1 4 1 5 0 0 0
136 1 0 2 5 0 0 0
137 1 1 2 5 0 0 0
138 1 2 2 5 0 0 0
139 1 3 2 5 0 0 0
140 1 4 2 5 0 0 0
141 1 0 3 5 0 0 0
142 1 1 3 5 0 0 0
143 1 2 3 5 0 0 0
144 1 3 3 5 0 0 0
145 1 4 3 5 0 0 0
146 1 0 4 5 0 0 0
147 1 1 4 5 0 0 0
148 1 2 4 5 0 0 0
149 1 3 4 5 0 0 0
150 1 4 4 5 0 0 0
151 1 0 0 6 0 0 0
152 1 1 0 6 0 0 0
153 1 2 0 6 0 0 0
154 1 3 0 6 0 0 0
155 1 4 0 6 0 0 0
156 1 0 1 6 0 0 0
157 1 1 1 6 0 0 0
158 1 2 1 6 0 0 0
159 1 3 1 6 0 0 0
160 1 4 1 6 0 0 0
161 1 0 2 6 0 0 0
162 1 1 2 6 0 0 0
163 1 2 2 6 0 0 0
164 1 3 2 6 0 0 0
165 1 4 2 6 0 0 0
166 1 0 3 6 0 0 0
167 1 1 3 6 0 0 0
168 1 2 3 6 0 0 0
169 1 3 3 6 0 0 0
170 1 4 3 6 0 0 0
171 1 0 4 6 0 0 0
172 1 1 4 6 0 0 0
173 1 2 4 6 0 0 0
174 1 3 4 6 0 0 0
175 1 4 4 6 0 0 0
176 1 0 0 7 0 0 0
177 1 1 0 7 0 0 0
178 1 2 0 7 0 0 0
179 1 3 0 7 0 0 0
180 1 4 0 7 0 0 0
181 1 0 1 7 0 0 0
182 1 1 1 7 0 0 0
183 1 2 1 7 0 0 0
184 1 3 1 7 0 0 0
185 1 4 1 7 0 0 0
186 1 0 2 7 0 0 0
187 1 1 2 7 0 0 0
188 1 2 2 7 0 0 0
189 1 3 2 7 0 0 0
190 1 4 2 7 0 0 0
191 1 0 3 7 0 0 0
192 1 1 3 7 0 0 0
193 1 2 3 7 0 0 0
194 1 3 3 7 0 0 0
195 1 4 3 7 0 0 0
196 1 0 4 7 0 0 0
197 1 1 4 7 0 0 0
198 1 2 4 7 0 0 0
199 1 3 4 7 0 0 0
200 1 4 4 7 0 0 0
201 1 0 0 8 0 0 0
202 1 1 0 8 0 0 0
203 1 2 0 8 0 0 0
204 1 3 0 8 0 0 0
205 1 4 0 8 0 0 0
206 1 0 1 8 0 0 0
207 1 1 1 8 0 0 0
208 1 2 1 8 0 0 0
209 1 3 1 8 0 0 0
210 1 4 1 8 0 0 0
211 1 0 2 8 0 0 0
212 1 1 2 8 0 0 0
213 1 2 2 8 0 0 0
214 1 3 2 8 0 0 0
215 1 4 2 8 0 0 0
216 1 0 3 8 0 0 0
217 1 1 3 8 0 0 0
218 1 2 3 8 0 0 0
219 1 3 3 8 0 0 0
220 1 4 3 8 0 0 0
221 1 0 4 8 0 0 0
222 1 1 4 8 0 0 0
223 1 2 4 8 0 0 0
224 1 3 4 8 0 0 0
225 1 4 4 8 0 0 0
226 1 0 0 9 0 0 0
227 1 1 0 9 0 0 0
228 1 2 0 9 0 0 0
229 1 3 0 9 0 0 0
230 1 4 0 9 0 0 0
231 1 0 1 9 0 0 0
232 1 1 1 9 0 0 0
233 1 2 1 9 0 0 0
234 1 3 1 9 0 0 0
235 1 4 1 9 0 0 0
236 1 0 2 9 0 0 0
237 1 1 2 9 0 0 0
238 1 2 2 9 0 0 0
239 1 3 2 9 0 0 0
240 1 4 2 9 0 0 0
241 1 0 3 9 0 0 0
242 1 1 3 9 0 0 0
243 1 2 3 9 0 0 0
244 1 3 3 9 0 0 0
245 1 4 3 9 0 0 0
246 1 0 4 9 0 0 0
247 1 1 4 9 0 0 0
248 1 2 4 9 0 0 0
249 1 3 4 9 0 0 0
250 1 4 4 9 0 0 0
251 1 0 5 0 0 0 0
252 1 1 5 0 0 0 0
253 1 2 5 0 0 0 0
254 1 3 5 0 0 0 0
255 1 4 5 0 0 0 0
256 1 0 6 0 0 0 0
257 1 1 6 0 0 0 0
258 1 2 6 0 0 0 0
259 1 3 6 0 0 0 0
260 1 4 6 0 0 0 0
261 1 0 7 0 0 0 0
262 1 1 7 0 0 0 0
263 1 2 7 0 0 0 0
264 1 3 7 0 0 0 0
265 1 4 7 0 0 0 0
266 1 0 8 0 0 0 0
267 1 1 8 0 0 0 0
268 1 2 8 0 0 0 0
269 1 3 8 0 0 0 0
270 1 4 8 0 0 0 0
271 1 0 9 0 0 0 0
272 1 1 9 0 0 0 0
273 1 2 9 0 0 0 0
274 1 3 9 0 0 0 0
275 1 4 9 0 0 0 0
276 1 0 5 1 0 0 0
277 1 1 5 1 0 0 0
278 1 2 5 1 0 0 0
279 1 3 5 1 0 0 0
280 1 4 5 1 0 0 0
281 1 0 6 1 0 0 0
282 1 1 6 1 0 0 0
283 1 2 6 1 0 0 0
284 1 3 6 1 0 0 0
285 1 4 6 1 0 0 0
286 1 0 7 1 0 0 0
287 1 1 7 1 0 0 0
288 1 2 7 1 0 0 0
289 1 3 7 1 0 0 0
290 1 4 7 1 0 0 0
291 1 0 8 1 0 0 0
292 1 1 8 1 0 0 0
293 1 2 8 1 0 0 0
294 1 3 8 1 0 0 0
295 1 4 8 1 0 0 0
296 1 0 9 1 0 0 0
297 1 1 9 1 0 0 0
298 1 2 9 1 0 0 0
299 1 3 9 1 0 0 0
300 1 4 9 1 0 0 0
301 1 0 5 2 0 0 0
302 1 1 5 2 0 0 0
303 1 2 5 2 0 0 0
304 1 3 5 2 0 0 0
305 1 4 5 2 0 0 0
306 1 0 6 2 0 0 0
307 1 1 6 2 0 0 0
308 1 2 6 2 0 0 0
309 1 3 6 2 0 0 0
310 1 4 6 2 0 0 0
311 1 0 7 2 0 0 0
312 1 1 7 2 0 0 0
313 1 2 7 2 0 0 0
314 1 3 7 2 0 0 0
315 1 4 7 2 0 0 0
316 1 0 8 2 0 0 0
317 1 1 8 2 0 0 0
318 1 2 8 2 0 0 0
319 1 3 8 2 0 0 0
320 1 4 8 2 0 0 0
321 1 0 9 2 0 0 0
322 1 1 9 2 0 0 0
323 1 2 9 2 0 0 0
324 1 3 9 2 0 0 0
325 1 4 9 2 0 0 0
326 1 0 5 3 0 0 0
327 1 1 5 3 0 0 0
328 1 2 5 3 0 0 0
329 1 3 5 3 0 0 0
330 1 4 5 3 0 0 0
331 1 0 6 3 0 0 0
332 1 1 6 3 0 0 0
333 1 2 6 3 0 0 0
334 1 3 6 3 0 0 0
335 1 4 6 3 0 0 0
336 1 0 7 3 0 0 0
337 1 1 7 3 0 0 0
338 1 2 7 3 0 0 0
339 1 3 7 3 0 0 0
340 1 4 7 3 0 0 0
341 1 0 8 3 0 0 0
342 1 1 8 3 0 0 0
343 1 2 8 3 0 0 0
344 1 3 8 3 0 0 0
345 1 4 8 3 0 0 0
346 1 0 9 3 0 0 0
347 1 1 9 3 0 0 0
348 1 2 9 3 0 0 0
349 1 3 9 3 0 0 0
350 1 4 9 3 0 0 0
351 1 0 5 4 0 0 0
352 1 1 5 4 0 0 0
353 1 2 5 4 0 0 0
354 1 3 5 4 0 0 0
355 1 4 5 4 0 0 0
356 1 0 6 4 0 0 0
357 1 1 6 4 0 0 0
358 1 2 6 4 0 0 0
359 1 3 6 4 0 0 0
360 1 4 6 4 0 0 0
361 1 0 7 4 0 0 0
362 1 1 7 4 0 0 0
363 1 2 7 4 0 0 0
364 1 3 7 4 0 0 0
365 1 4 7 4 0 0 0
366 1 0 8 4 0 0 0
367 1 1 8 4 0 0 0
368 1 2 8 4 0 0 0
369 1 3 8 4 0 0 0
370 1 4 8 4 0 0 0
371 1 0 9 4 0 0 0
372 1 1 9 4 0 0 0
373 1 2 9 4 0 0 0
374 1 3 9 4 0 0 0
375 1 4 9 4 0 0 0
376 1 0 5 5 0 0 0
377 1 1 5 5 0 0 0
378 1 2 5 5 0 0 0
379 1 3 5 5 0 0 0
380 1 4 5 5 0 0 0
381 1 0 6 5 0 0 0
382 1 1 6 5 0 0 0
383 1 2 6 5 0 0 0
384 1 3 6 5 0 0 0
385 1 4 6 5 0 0 0
386 1 0 7 5 0 0 0
387 1 1 7 5 0 0 0
388 1 2 7 5 0 0 0
389 1 3 7 5 0 0 0
390 1 4 7 5 0 0 0
391 1 0 8 5 0 0 0
392 1 1 8 5 0 0 0
393 1 2 8 5 0 0 0
394 1 3 8 5 0 0 0
395 1 4 8 5 0 0 0
396 1 0 9 5 0 0 0
397 1 1 9 5 0 0 0
398 1 2 9 5 0 0 0
399 1 3 9 5 0 0 0
400 1 4 9 5 0 0 0
401 1 0 5 6 0 0 0
402 1 1 5 6 0 0 0
403 1 2 5 6 0 0 0
404 1 3 5 6 0 0 0
405 1 4 5 6 0 0 0
406 1 0 6 6 0 0 0
407 1 1 6 6 0 0 0
408 1 2 6 6 0 0 0
409 1 3 6 6 0 0 0
410 1 4 6 6 0 0 0
411 1 0 7 6 0 0 0
412 1 1 7 6 0 0 0
413 1 2 7 6 0 0 0
414 1 3 7 6 0 0 0
415 1 4 7 6 0 0 0
416 1 0 8 6 0 0 0
417 1 1 8 6 0 0 0
418 1 2 8 6 0 0 0
419 1 3 8 6 0 0 0
420 1 4 8 6 0 0 0
421 1 0 9 6 0 0 0
422 1 1 9 6 0 0 0
423 1 2 9 6 0 0 0
424 1 3 9 6 0 0 0
425 1 4 9 6 0 0 0
426 1 0 5 7 0 0 0
427 1 1 5 7 0 0 0
428 1 2 5 7 0 0 0
429 1 3 5 7 0 0 0
430 1 4 5 7 0 0 0
431 1 0 6 7 0 0 0
432 1 1 6 7 0 0 0
433 1 2 6 7 0 0 0
434 1 3 6 7 0 0 0
435 1 4 6 7 0 0 0
436 1 0 7 7 0 0 0
437 1 1 7 7 0 0 0
438 1 2 7 7 0 0 0
439 1 3 7 7 0 0 0
440 1 4 7 7 0 0 0
441 1 0 8 7 0 0 0
442 1 1 8 7 0 0 0
443 1 2 8 7 0 0 0
444 1 3 8 7 0 0 0
445 1 4 8 7 0 0 0
446 1 0 9 7 0 0 0
447 1 1 9 7 0 0 0
448 1 2 9 7 0 0 0
449 1 3 9 7 0 0 0
450 1 4 9 7 0 0 0
451 1 0 5 8 0 0 0
452 1 1 5 8 0 0 0
453 1 2 5 8 0 0 0
454 1 3 5 8 0 0 0
455 1 4 5 8 0 0 0
456 1 0 6 8 0 0 0
457 1 1 6 8 0 0 0
458 1 2 6 8 0 0 0
459 1 3 6 8 0 0 0
460 1 4 6 8 0 0 0
461 1 0 7 8 0 0 0
462 1 1 7 8 0 0 0
463 1 2 7 8 0 0 0
464 1 3 7 8 0 0 0
465 1 4 7 8 0 0 0
466 1 0 8 8 0 0 0
467 1 1 8 8 0 0 0
468 1 2 8 8 0 0 0
469 1 3 8 8 0 0 0
470 1 4 8 8 0 0 0
471 1 0 9 8 0 0 0
472 1 1 9 8 0 0 0
473 1 2 9 8 0 0 0
474 1 3 9 8 0 0 0
475 1 4 9 8 0 0 0
476 1 0 5 9 0 0 0
477 1 1 5 9 0 0 0
478 1 2 5 9 0 0 0
479 1 3 5 9 0 0 0
480 1 4 5 9 0 0 0
481 1 0 6 9 0 0 0
482 1 1 6 9 0 0 0
483 1 2 6 9 0 0 0
484 1 3 6 9 0 0 0
485 1 4 6 9 0 0 0
486 1 0 7 9 0 0 0
487 1 1 7 9 0 0 0
488 1 2 7 9 0 0 0
489 1 3 7 9 0 0 0
490 1 4 7 9 0 0 0
491 1 0 8 9 0 0 0
492 1 1 8 9 0 0 0
493 1 2 8 9 0 0 0
494 1 3 8 9 0 0 0
495 1 4 8 9 0 0 0
496 1 0 9 9 0 0 0
497 1 1 9 9 0 0 0
498 1 2 9 9 0 0 0
499 1 3 9 9 0 0 0
500 1 4 9 9 0 0 0
501 1 5 0 0 0 0 0
502 1 6 0 0 0 0 0
503 1 7 0 0 0 0 0
504 1 8 0 0 0 0 0
505 1 9 0 0 0 0 0
506 1 5 1 0 0 0 0
507 1 6 1 0 0 0 0
508 1 7 1 0 0 0 0
509 1 8 1 0 0 0 0
510 1 9 1 0 0 0 0
511 1 5 2 0 0 0 0
512 1 6 2 0 0 0 0
513 1 7 2 0 0 0 0
514 1 8 2 0 0 0 0
515 1 9 2 0 0 0 0
516 1 5 3 0 0 0 0
517 1 6 3 0 0 0 0
518 1 7 3 0 0 0 0
519 1 8 3 0 0 0 0
520 1 9 3 0 0 0 0
521 1 5 4 0 0 0 0
522 1 6 4 0 0 0 0
523 1 7 4 0 0 0 0
524 1 8 4 0 0 0 0
525 1 9 4 0 0 0 0
526 1 5 0 1 0 0 0
527 1 6 0 1 0 0 0
528 1 7 0 1 0 0 0
529 1 8 0 1 0 0 0
530 1 9 0 1 0 0 0
531 1 5 1 1 0 0 0
532 1 6 1 1 0 0 0
533 1 7 1 1 0 0 0
534 1 8 1 1 0 0 0
535 1 9 1 1 0 0 0
536 1 5 2 1 0 0 0
537 1 6 2 1 0 0 0
538 1 7 2 1 0 0 0
539 1 8 2 1 0 0 0
540 1 9 2 1 0 0 0
541 1 5 3 1 0 0 0
542 1 6 3 1 0 0 0
543 1 7 3 1 0 0 0
544 1 8 3 1 0 0 0
545 1 9 3 1 0 0 0
546 1 5 4 1 0 0 0
547 1 6 4 1 0 0 0
548 1 7 4 1 0 0 0
549 1 8 4 1 0 0 0
550 1 9 4 1 0 0 0
551 1 5 0 2 0 0 0
552 1 6 0 2 0 0 0
553 1 7 0 2 0 0 0
554 1 8 0 2 0 0 0
555 1 9 0 2 0 0 0
556 1 5 1 2 0 0 0
557 1 6 1 2 0 0 0
558 1 7 1 2 0 0 0
559 1 8 1 2 0 0 0
560 1 9 1 2 0 0 0
561 1 5 2 2 0 0 0
562 1 6 2 2 0 0 0
563 1 7 2 2 0 0 0
564 1 8 2 2 0 0 0
565 1 9 2 2 0 0 0
566 1 5 3 2 0 0 0
567 1 6 3 2 0 0 0
568 1 7 3 2 0 0 0
569 1 8 3 2 0 0 0
570 1 9 3 2 0 0 0
571 1 5 4 2 0 0 0
572 1 6 4 2 0 0 0
573 1 7 4 2 0 0 0
574 1 8 4 2 0 0 0
575 1 9 4 2 0 0 0
576 1 5 0 3 0 0 0
577 1 6 0 3 0 0 0
578 1 7 0 3 0 0 0
579 1 8 0 3 0 0 0
580 1 9 0 3 0 0 0
581 1 5 1 3 0 0 0
582 1 6 1 3 0 0 0
583 1 7 1 3 0 0 0
584 1 8 1 3 0 0 0
585 1 9 1 3 0 0 0
586 1 5 2 3 0 0 0
587 1 6 2 3 0 0 0
588 1 7 2 3 0 0 0
589 1 8 2 3 0 0 0
590 1 9 2 3 0 0 0
591 1 5 3 3 0 0 0
592 1 6 3 3 0 0 0
593 1 7 3 3 0 0 0
594 1 8 3 3 0 0 0
595 1 9 3 3 0 0 0
596 1 5 4 3 0 0 0
597 1 6 4 3 0 0 0
598 1 7 4 3 0 0 0
599 1 8 4 3 0 0 0
600 1 9 4 3 0 0 0
601 1 5 0 4 0 0 0
602 1 6 0 4 0 0 0
603 1 7 0 4 0 0 0
604 1 8 0 4 0 0 0
605 1 9 0 4 0 0 0
606 1 5 1 4 0 0 0
607 1 6 1 4 0 0 0
608 1 7 1 4 0 0 0
609 1 8 1 4 0 0 0
610 1 9 1 4 0 0 0
611 1 5 2 4 0 0 0
612 1 6 2 4 0 0 0
613 1 7 2 4 0 0 0
614 1 8 2 4 0 0 0
615 1 9 2 4 0 0 0
616 1 5 3 4 0 0 0
617 1 6 3 4 0 0 0
618 1 7 3 4 0 0 0
619 1 8 3 4 0 0 0
620 1 9 3 4 0 0 0
621 1 5 4 4 0 0 0
622 1 6 4 4 0 0 0
623 1 7 4 4 0 0 0
624 1 8 4 4 0 0 0
625 1 9 4 4 0 0 0
626 1 5 0 5 0 0 0
627 1 6 0 5 0 0 0
628 1 7 0 5 0 0 0
629 1 8 0 5 0 0 0
630 1 9 0 5 0 0 0
631 1 5 1 5 0 0 0
632 1 6 1 5 0 0 0
633 1 7 1 5 0 0 0
634 1 8 1 5 0 0 0
635 1 9 1 5 0 0 0
636 1 5 2 5 0 0 0
637 1 6 2 5 0 0 0
638 1 7 2 5 0 0 0
639 1 8 2 5 0 0 0
640 1 9 2 5 0 0 0
641 1 5 3 5 0 0 0
642 1 6 3 5 0 0 0
643 1 7 3 5 0 0 0
644 1 8 3 5 0 0 0
645 1 9 3 5 0 0 0
646 1 5 4 5 0 0 0
647 1 6 4 5 0 0 0
648 1 7 4 5 0 0 0
649 1 8 4 5 0 0 0
650 1 9 4 5 0 0 0
651 1 5 0 6 0 0 0
652 1 6 0 6 0 0 0
653 1 7 0 6 0 0 0
654 1 8 0 6 0 0 0
655 1 9 0 6 0 0 0
656 1 5 1 6 0 0 0
657 1 6 1 6 0 0 0
658 1 7 1 6 0 0 0
659 1 8 1 6 0 0 0
660 1 9 1 6 0 0 0
661 1 5 2 6 0 0 0
662 1 6 2 6 0 0 0
663 1 7 2 6 0 0 0
664 1 8 2 6 0 0 0
665 1 9 2 6 0 0 0
666 1 5 3 6 0 0 0
667 1 6 3 6 0 0 0
668 1 7 3 6 0 0 0
669 1 8 3 6 0 0 0
670 1 9 3 6 0 0 0
671 1 5 4 6 0 0 0
672 1 6 4 6 0 0 0
673 1 7 4 6 0 0 0
674 1 8 4 6 0 0 0
675 1 9 4 6 0 0 0
676 1 5 0 7 0 0 0
677 1 6 0 7 0 0 0
678 1 7 0 7 0 0 0
679 1 8 0 7 0 0 0
680 1 9 0 7 0 0 0
681 1 5 1 7 0 0 0
682 1 6 1 7 0 0 0
683 1 7 1 7 0 0 0
684 1 8 1 7 0 0 0
685 1 9 1 7 0 0 0
686 1 5 2 7 0 0 0
687 1 6 2 7 0 0 0
688 1 7 2 7 0 0 0
689 1 8 2 7 0 0 0
690 1 9 2 7 0 0 0
691 1 5 3 7 0 0 0
692 1 6 3 7 0 0 0
693 1 7 3 7 0 0 0
694 1 8 3 7 0 0 0
695 1 9 3 7 0 0 0
696 1 5 4 7 0 0 0
697 1 6 4 7 0 0 0
698 1 7 4 7 0 0 0
699 1 8 4 7 0 0 0
700 1 9 4 7 0 0 0
701 1 5 0 8 0 0 0
702 1 6 0 8 0 0 0
703 1 7 0 8 0 0 0
704 1 8 0 8 0 0 0
705 1 9 0 8 0 0 0
706 1 5 1 8 0 0 0
707 1 6 1 8 0 0 0
708 1 7 1 8 0 0 0
709 1 8 1 8 0 0 0
710 1 9 1 8 0 0 0
711 1 5 2 8 0 0 0
712 1 6 2 8 0 0 0
713 1 7 2 8 0 0 0
714 1 8 2 8 0 0 0
715 1 9 2 8 0 0 0
716 1 5 3 8 0 0 0
717 1 6 3 8 0 0 0
718 1 7 3 8 0 0 0
719 1 8 3 8 0 0 0
720 1 9 3 8 0 0 0
721 1 5 4 8 0 0 0
722 1 6 4 8 0 0 0
723 1 7 4 8 0 0 0
724 1 8 4 8 0 0 0
725 1 9 4 8 0 0 0
726 1 5 0 9 0 0 0
727 1 6 0 9 0 0 0
728 1 7 0 9 0 0 0
729 1 8 0 9 0 0 0
730 1 9 0 9 0 0 0
731 1 5 1 9 0 0 0
732 1 6 1 9 0 0 0
733 1 7 1 9 0 0 0
734 1 8 1 9 0 0 0
735 1 9 1 9 0 0 0
736 1 5 2 9 0 0 0
737 1 6 2 9 0 0 0
738 1 7 2 9 0 0 0
739 1 8 2 9 0 0 0
740 1 9 2 9 0 0 0
741 1 5 3 9 0 0 0
742 1 6 3 9 0 0 0
743 1 7 3 9 0 0 0
744 1 8 3 9 0 0 0
745 1 9 3 9 0 0 0
746 1 5 4 9 0 0 0
747 1 6 4 9 0 0 0
748 1 7 4 9 0 0 0
749 1 8 4 9 0 0 0
750 1 9 4 9 0 0 0
751 1 5 5 0 0 0 0
752 1 6 5 0 0 0 0
753 1 7 5 0 0 0 0
754 1 8 5 0 0 0 0
755 1 9 5 0 0 0 0
756 1 5 6 0 0 0 0
757 1 6 6 0 0 0 0
758 1 7 6 0 0 0 0
759 1 8 6 0 0 0 0
760 1 9 6 0 0 0 0
761 1 5 7 0 0 0 0
762 1 6 7 0 0 0 0
763 1 7 7 0 0 0 0
764 1 8 7 0 0 0 0
765 1 9 7 0 0 0 0
766 1 5 8 0 0 0 0
767 1 6 8 0 0 0 0
768 1 7 8 0 0 0 0
769 1 8 8 0 0 0 0
770 1 9 8 0 0 0 0
771 1 5 9 0 0 0 0
772 1 6 9 0 0 0 0
773 1 7 9 0 0 0 0
774 1 8 9 0 0 0 0
775 1 9 9 0 0 0 0
776 1 5 5 1 0 0 0
777 1 6 5 1 0 0 0
778 1 7 5 1 0 0 0
779 1 8 5 1 0 0 0
780 1 9 5 1 0 0 0
781 1 5 6 1 0 0 0
782 1 6 6 1 0 0 0
783 1 7 6 1 0 0 0
784 1 8 6 1 0 0 0
785 1 9 6 1 0 0 0
786 1 5 7 1 0 0 0
787 1 6 7 1 0 0 0
788 1 7 7 1 0 0 0
789 1 8 7 1 0 0 0
790 1 9 7 1 0 0 0
791 1 5 8 1 0 0 0
792 1 6 8 1 0 0 0
793 1 7 8 1 0 0 0
794 1 8 8 1 0 0 0
795 1 9 8 1 0 0 0
796 1 5 9 1 0 0 0
797 1 6 9 1 0 0 0
798 1 7 9 1 0 0 0
799 1 8 9 1 0 0 0
800 1 9 9 1 0 0 0
801 1 5 5 2 0 0 0
802 1 6 5 2 0 0 0
803 1 7 5 2 0 0 0
804 1 8 5 2 0 0 0
805 1 9 5 2 0 0 0
806 1 5 6 2 0 0 0
807 1 6 6 2 0 0 0
808 1 7 6 2 0 0 0
809 1 8 6 2 0 0 0
810 1 9 6 2 0 0 0
811 1 5 7 2 0 0 0
812 1 6 7 2 0 0 0
813 1 7 7 2 0 0 0
814 1 8 7 2 0 0 0
815 1 9 7 2 0 0 0
816 1 5 8 2 0 0 0
817 1 6 8 2 0 0 0
818 1 7 8 2 0 0 0
819 1 8 8 2 0 0 0
820 1 9 8 2 0 0 0
821 1 5 9 2 0 0 0
822 1 6 9 2 0 0 0
823 1 7 9 2 0 0 0
824 1 8 9 2 0 0 0
825 1 9 9 2 0 0 0
826 1 5 5 3 0 0 0
827 1 6 5 3 0 0 0
828 1 7 5 3 0 0 0
829 1 8 5 3 0 0 0
830 1 9 5 3 0 0 0
831 1 5 6 3 0 0 0
832 1 6 6 3 0 0 0
833 1 7 6 3 0 0 0
834 1 8 6 3 0 0 0
835 1 9 6 3 0 0 0
836 1 5 7 3 0 0 0
837 1 6 7 3 0 0 0
838 1 7 7 3 0 0 0
839 1 8 7 3 0 0 0
840 1 9 7 3 0 0 0
841 1 5 8 3 0 0 0
842 1 6 8 3 0 0 0
843 1 7 8 3 0 0 0
844 1 8 8 3 0 0 0
845 1 9 8 3 0 0 0
846 1 5 9 3 0 0 0
847 1 6 9 3 0 0 0
848 1 7 9 3 0 0 0
849 1 8 9 3 0 0 0
850 1 9 9 3 0 0 0
851 1 5 5 4 0 0 0
852 1 6 5 4 0 0 0
853 1 7 5 4 0 0 0
854 1 8 5 4 0 0 0
855 1 9 5 4 0 0 0
856 1 5 6 4 0 0 0
857 1 6 6 4 0 0 0
858 1 7 6 4 0 0 0
859 1 8 6 4 0 0 0
860 1 9 6 4 0 0 0
861 1 5 7 4 0 0 0
862 1 6 7 4 0 0 0
863 1 7 7 4 0 0 0
864 1 8 7 4 0 0 0
865 1 9 7 4 0 0 0
866 1 5 8 4 0 0 0
867 1 6 8 4 0 0 0
868 1 7 8 4 0 0 0
869 1 8 8 4 0 0 0
870 1 9 8 4 0 0 0
871 1 5 9 4 0 0 0
872 1 6 9 4 0 0 0
873 1 7 9 4 0 0 0
874 1 8 9 4 0 0 0
875 1 9 9 4 0 0 0
876 1 5 5 5 0 0 0
877 1 6 5 5 0 0 0
878 1 7 5 5 0 0 0
879 1 8 5 5 0 0 0
880 1 9 5 5 0 0 0
881 1 5 6 5 0 0 0
882 1 6 6 5 0 0 0
883 1 7 6 5 0 0 0
884 1 8 6 5 0 0 0
885 1 9 6 5 0 0 0
886 1 5 7 5 0 0 0
887 1 6 7 5 0 0 0
888 1 7 7 5 0 0 0
889 1 8 7 5 0 0 0
890 1 9 7 5 0 0 0
891 1 5 8 5 0 0 0
892 1 6 8 5 0 0 0
893 1 7 8 5 0 0 0
894 1 8 8 5 0 0 0
895 1 9 8 5 0 0 0
896 1 5 9 5 0 0 0
897 1 6 9 5 0 0 0
898 1 7 9 5 0 0 0
899 1 8 9 5 0 0 0
900 1 9 9 5 0 0 0
901 1 5 5 6 0 0 0
902 1 6 5 6 0 0 0
903 1 7 5 6 0 0 0
904 1 8 5 6 0 0 0
905 1 9 5 6 0 0 0
906 1 5 6 6 0 0 0
907 1 6 6 6 0 0 0
908 1 7 6 6 0 0 0
909 1 8 6 6 0 0 0
910 1 9 6 6 0 0 0
911 1 5 7 6 0 0 0
912 1 6 7 6 0 0 0
913 1 7 7 6 0 0 0
914 1 8 7 6 0 0 0
915 1 9 7 6 0 0 0
916 1 5 8 6 0 0 0
917 1 6 8 6 0 0 0
918 1 7 8 6 0 0 0
919 1 8 8 6 0 0 0
920 1 9 8 6 0 0 0
921 1 5 9 6 0 0 0
922 1 6 9 6 0 0 0
923 1 7 9 6 0 0 0
924 1 8 9 6 0 0 0
925 1 9 9 6 0 0 0
926 1 5 5 7 0 0 0
927 1 6 5 7 0 0 0
928 1 7 5 7 0 0 0
929 1 8 5 7 0 0 0
930 1 9 5 7 0 0 0
931 1 5 6 7 0 0 0
932 1 6 6 7 0 0 0
933 1 7 6 7 0 0 0
934 1 8 6 7 0 0 0
935 1 9 6 7 0 0 0
936 1 5 7 7 0 0 0
937 1 6 7 7 0 0 0
938 1 7 7 7 0 0 0
939 1 8 7 7 0 0 0
940 1 9 7 7 0 0 0
941 1 5 8 7 0 0 0
942 1 6 8 7 0 0 0
943 1 7 8 7 0 0 0
944 1 8 8 7 0 0 0
945 1 9 8 7 0 0 0
946 1 5 9 7 0 0 0
947 1 6 9 7 0 0 0
948 1 7 9 7 0 0 0
949 1 8 9 7 0 0 0
950 1 9 9 7 0 0 0
951 1 5 5 8 0 0 0
952 1 6 5 8 0 0 0
953 1 7 5 8 0 0 0
954 1 8 5 8 0 0 0
955 1 9 5 8 0 0 0
956 1 5 6 8 0 0 0
957 1 6 6 8 0 0 0
958 1 7 6 8 0 0 0
959 1 8 6 8 0 0 0
960 1 9 6 8 0 0 0
961 1 5 7 8 0 0 0
962 1 6 7 8 0 0 0
963 1 7 7 8 0 0 0
964 1 8 7 8 0 0 0
965 1 9 7 8 0 0 0
966 1 5 8 8 0 0 0
967 1 6 8 8 0 0 0
968 1 7 8 8 0 0 0
969 1 8 8 8 0 0 0
970 1 9 8 8 0 0 0
971 1 5 9 8 0 0 0
972 1 6 9 8 0 0 0
973 1 7 9 8 0 0 0
974 1 8 9 8 0 0 0
975 1 9 9 8 0 0 0
976 1 5 5 9 0 0 0
977 1 6 5 9 0 0 0
978 1 7 5 9 0 0 0
979 1 8 5 9 0 0 0
980 1 9 5 9 0 0 0
981 1 5 6 9 0 0 0
982 1 6 6 9 0 0 0
983 1 7 6 9 0 0 0
984 1 8 6 9 0 0 0
985 1 9 6 9 0 0 0
986 1 5 7 9 0 0 0
987 1 6 7 9 0 0 0
988 1 7 7 9 0 0 0
989 1 8 7 9 0 0 0
990 1 9 7 9 0 0 0
991 1 5 8 9 0 0 0
992 1 6 8 9 0 0 0
993 1 7 8 9 0 0 0
994 1 8 8 9 0 0 0
995 1 9 8 9 0 0 0
996 1 5 9 9 0 0 0
997 1 6 9 9 0 0 0
998 1 7 9 9 0 0 0
999 1 8 9 9 0 0 0
1000 1 9 9 9 0 0 0

Velocities

1 0 0 0
2 0 0 0
3 0 0 0
4 0 0 0
5 0 0 0
6 0 0 0
7 0 0 0
8 0 0 0
9 0 0 0
10 0 0 0
11 0 0 0
12 0 0 0
13 0 0 0
14 0 0 0
15 0 0 0
16 0 0 0
17 0 0 0
18 0 0 0
19 0 0 0
20 0 0 0
21 0 0 0
22 0 0 0
23 0 0 0
24 0 0 0
25 0 0 0
26 0 0 0
27 0 0 0
28 0 0 0
29 0 0 0
30 0 0 0
31 0 0 0
32 0 0 0
33 0 0 0
34 0 0 0
35 0 0 0
36 0 0 0
37 0 0 0
38 0 0 0
39 0 0 0
40 0 0 0
41 0 0 0
42 0 0 0
43 0 0 0
44 0 0 0
45 0 0 0
46 0 0 0
47 0 0 0
48 0 0 0
49 0 0 0
50 0 0 0
51 0 0 0
52 0 0 0
53 0 0 0
54 0 0 0
55 0 0 0
56 0 0 0
57 0 0 0
58 0 0 0
59 0 0 0
60 0 0 0
61 0 0 0
62 0 0 0
63 0 0 0
64 0 0 0
65 0 0 0
66 0 0 0
67 0 0 0
68 0 0 0
69 0 0 0
70 0 0 0
71 0 0 0
72 0 0 0
73 0 0 0
74 0 0 0
75 0 0 0
76 0 0 0
77 0 0 0
78 0 0 0
79 0 0 0
80 0 0 0
81 0 0 0
82 0 0 0
83 0 0 0
84 0 0 0
85 0 0 0
86 0 0 0
87 0 0 0
88 0 0 0
89 0 0 0
90 0 0 0
91 0 0 0
92 0 0 0
93 0 0 0
94 0 0 0
95 0 0 0
96 0 0 0
97 0 0 0
98 0 0 0
99 0 0 0
100 0 0 0
101 0 0 0
102 0 0 0
103 0 0 0
104 0 0 0
105 0 0 0
106 0 0 0
107 0 0 0
108 0 0 0
109 0 0 0
110 0 0 0
111 0 0 0
112 0 0 0
113 0 0 0
114 0 0 0
115 0 0 0
116 0 0 0
117 0 0 0
118 0 0 0
119 0 0 0
120 0 0 0
121 0 0 0
122 0 0 0
123 0 0 0
124 0 0 0
125 0 0 0
126 0 0 0
127 0 0 0
128 0 0 0
129 0 0 0
130 0 0 0
131 0 0 0
132 0 0 0
133 0 0 0
134 0 0 0
135 0 0 0
136 0 0 0
137 0 0 0
138 0 0 0
139 0 0 0
140 0 0 0
141 0 0 0
142 0 0 0
143 0 0 0
144 0 0 0
145 0 0 0
146 0 0 0
147 0 0 0
148 0 0 0
149 0 0 0
150 0 0 0
151 0 0 0
152 0 0 0
153 0 0 0
154 0 0 0
155 0 0 0
156 0 0 0
157 0 0 0
158 0 0 0
159 0 0 0
160 0 0 0
161 0 0 0
162 0 0 0
163 0 0 0
164 0 0 0
165 0 0 0
166 0 0 0
167 0 0 0
168 0 0 0
169 0 0 0
170 0 0 0
171 0 0 0
172 0 0 0
173 0 0 0
174 0 0 0
175 0 0 0
176 0 0 0
177 0 0 0
178 0 0 0
179 0 0 0
180 0 0 0
181 0 0 0
182 0 0 0
183 0 0 0
184 0 0 0
185 0 0 0
186 0 0 0
187 0 0 0
188 0 0 0
189 0 0 0
190 0 0 0
191 0 0 0
192 0 0 0
193 0 0 0
194 0 0 0
195 0 0 0
196 0 0 0
197 0 0 0
198 0 0 0
199 0 0 0
200 0 0 0
201 0 0 0
202 0 0 0
203 0 0 0
204 0 0 0
205 0 0 0
206 0 0 0
207 0 0 0
208 0 0 0
209 0 0 0
210 0 0 0
211 0 0 0
212 0 0 0
213 0 0 0
214 0 0 0
215 0 0 0
216 0 0 0
217 0 0 0
218 0 0 0
219 0 0 0
220 0 0 0
221 0 0 0
222 0 0 0
223 0 0 0
224 0 0 0
225 0 0 0
226 0 0 0
227 0 0 0
228 0 0 0
229 0 0 0
230 0 0 0
231 0 0 0
232 0 0 0
233 0 0 0
234 0 0 0
235 0 0 0
236 0 0 0
237 0 0 0
238 0 0 0
239 0 0 0
240 0 0 0
241 0 0 0
242 0 0 0
243 0 0 0
244 0 0 0
245 0 0 0
246 0 0 0
247 0 0 0
248 0 0 0
249 0 0 0
250 0 0 0
251 0 0 0
252 0 0 0
253 0 0 0
254 0 0 0
255 0 0 0
256 0 0 0
257 0 0 0
258 0 0 0
259 0 0 0
260 0 0 0
261 0 0 0
262 0 0 0
263 0 0 0
264 0 0 0
265 0 0 0
266 0 0 0
267 0 0 0
268 0 0 0
269 0 0 0
270 0 0 0
271 0 0 0
272 0 0 0
273 0 0 0
274 0 0 0
275 0 0 0
276 0 0 0
277 0 0 0
278 0 0 0
279 0 0 0
280 0 0 0
281 0 0 0
282 0 0 0
283 0 0 0
284 0 0 0
285 0 0 0
286 0 0 0
287 0 0 0
288 0 0 0
289 0 0 0
290 0 0 0
291 0 0 0
292 0 0 0
293 0 0 0
294 0 0 0
295 0 0 0
296 0 0 0
297 0 0 0
298 0 0 0
299 0 0 0
300 0 0 0
301 0 0 0
302 0 0 0
303 0 0 0
304 0 0 0
305 0 0 0
306 0 0 0
307 0 0 0
308 0 0 0
309 0 0 0
310 0 0 0
311 0 0 0
312 0 0 0
313 0 0 0
314 0 0 0
315 0 0 0
316 0 0 0
317 0 0 0
318 0 0 0
319 0 0 0
320 0 0 0
321 0 0 0
322 0 0 0
323 0 0 0
324 0 0 0
325 0 0 0
326 0 0 0
327 0 0 0
328 0 0 0
329 0 0 0
330 0 0 0
331 0 0 0
332 0 0 0
333 0 0 0
334 0 0 0
335 0 0 0
336 0 0 0
337 0 0 0
338 0 0 0
339 0 0 0
340 0 0 0
341 0 0 0
342 0 0 0
343 0 0 0
344 0 0 0
345 0 0 0
346 0 0 0
347 0 0 0
348 0 0 0
349 0 0 0
350 0 0 0
351 0 0 0
352 0 0 0
353 0 0 0
354 0 0 0
355 0 0 0
356 0 0 0
357 0 0 0
358 0 0 0
359 0 0 0
360 0 0 0
361 0 0 0
362 0 0 0
363 0 0 0
364 0 0 0
365 0 0 0
366 0 0 0
367 0 0 0
368 0 0 0
369 0 0 0
370 0 0 0
371 0 0 0
372 0 0 0
373 0 0 0
374 0 0 0
375 0 0 0
376 0 0 0
377 0 0 0
378 0 0 0
379 0 0 0
380 0 0 0
381 0 0 0
382 0 0 0
383 0 0 0
384 0 0 0
385 0 0 0
386 0 0 0
387 0 0 0
388 0 0 0
389 0 0 0
390 0 0 0
391 0 0 0
392 0 0 0
393 0 0 0
394 0 0 0
395 0 0 0
396 0 0 0
397 0 0 0
398 0 0 0
399 0 0 0
400 0 0 0
401 0 0 0
402 0 0 0
403 0 0 0
404 0 0 0
405 0 0 0
406 0 0 0
407 0 0 0
408 0 0 0
409 0 0 0
410 0 0 0
411 0 0 0
412 0 0 0
413 0 0 0
414 0 0 0
415 0 0 0
416 0 0 0
417 0 0 0
418 0 0 0
419 0 0 0
420 0 0 0
421 0 0 0
422 0 0 0
423 0 0 0
424 0 0 0
425 0 0 0
426 0 0 0
427 0 0 0
428 0 0 0
429 0 0 0
430 0 0 0
431 0 0 0
432 0 0 0
433 0 0 0
434 0 0 0
435 0 0 0
436 0 0 0
437 0 0 0
438 0 0 0
439 0 0 0
440 0 0 0
441 0 0 0
442 0 0 0
443 0 0 0
444 0 0 0
445 0 0 0
446 0 0 0
447 0 0 0
448 0 0 0
449 0 0 0
450 0 0 0
451 0 0 0
452 0 0 0
453 0 0 0
454 0 0 0
455 0 0 0
456 0 0 0
457 0 0 0
458 0 0 0
459 0 0 0
460 0 0 0
461 0 0 0
462 0 0 0
463 0 0 0
464 0 0 0
465 0 0 0
466 0 0 0
467 0 0 0
468 0 0 0
469 0 0 0
470 0 0 0
471 0 0 0
472 0 0 0
473 0 0 0
474 0 0 0
475 0 0 0
476 0 0 0
477 0 0 0
478 0 0 0
479 0 0 0
480 0 0 0
481 0 0 0
482 0 0 0
483 0 0 0
484 0 0 0
485 0 0 0
486 0 0 0
487 0 0 0
488 0 0 0
489 0 0 0
490 0 0 0
491 0 0 0
492 0 0 0
493 0 0 0
494 0 0 0
495 0 0 0
496 0 0 0
497 0 0 0
498 0 0 0
499 0 0 0
500 0 0 0
501 0 0 0
502 0 0 0
503 0 0 0
504 0 0 0
505 0 0 0
506 0 0 0
507 0 0 0
508 0 0 0
509 0 0 0
510 0 0 0
511 0 0 0
512 0 0 0
513 0 0 0
514 0 0 0
515 0 0 0
516 0 0 0
517 0 0 0
518 0 0 0
519 0 0 0
520 0 0 0
521 0 0 0
522 0 0 0
523 0 0 0
524 0 0 0
525 0 0 0
526 0 0 0
527 0 0 0
528 0 0 0
529 0 0 0
530 0 0 0
531 0 0 0
532 0 0 0
533 0 0 0
534 0 0 0
535 0 0 0
536 0 0 0
537 0 0 0
538 0 0 0
539 0 0 0
540 0 0 0
541 0 0 0
542 0 0 0
543 0 0 0
544 0 0 0
545 0 0 0
546 0 0 0
547 0 0 0
548 0 0 0
549 0 0 0
550 0 0 0
551 0 0 0
552 0 0 0
553 0 0 0
554 0 0 0
555 0 0 0
556 0 0 0
557 0 0 0
558 0 0 0
559 0 0 0
560 0 0 0
561 0 0 0
562 0 0 0
563 0 0 0
564 0 0 0
565 0 0 0
566 0 0 0
567 0 0 0
568 0 0 0
569 0 0 0
570 0 0 0
571 0 0 0
572 0 0 0
573 0 0 0
574 0 0 0
575 0 0 0
576 0 0 0
577 0 0 0
578 0 0 0
579 0 0 0
580 0 0 0
581 0 0 0
582 0 0 0
583 0 0 0
584 0 0 0
585 0 0 0
586 0 0 0
587 0 0 0
588 0 0 0
589 0 0 0
590 0 0 0
591 0 0 0
592 0 0 0
593 0 0 0
594 0 0 0
595 0 0 0
596 0 0 0
597 0 0 0
598 0 0 0
599 0 0 0
600 0 0 0
601 0 0 0
602 0 0 0
603 0 0 0
604 0 0 0
605 0 0 0
606 0 0 0
607 0 0 0
608 0 0 0
609 0 0 0
610 0 0 0
611 0 0 0
612 0 0 0
613 0 0 0
614 0 0 0
615 0 0 0
616 0 0 0
617 0 0 0
618 0 0 0
619 0 0 0
620 0 0 0
621 0 0 0
622 0 0 0
623 0 0 0
624 0 0 0
625 0 0 0
626 0 0 0
627 0 0 0
628 0 0 0
629 0 0 0
630 0 0 0
631 0 0 0
632 0 0 0
633 0 0 0
634 0 0 0
635 0 0 0
636 0 0 0
637 0 0 0
638 0 0 0
639 0 0 0
640 0 0 0
641 0 0 0
642 0 0 0
643 0 0 0
644 0 0 0
645 0 0 0
646 0 0 0
647 0 0 0
648 0 0 0
649 0 0 0
650 0 0 0
651 0 0 0
652 0 0 0
653 0 0 0
654 0 0 0
655 0 0 0
656 0 0 0
657 0 0 0
658 0 0 0
659 0 0 0
660 0 0 0
661 0 0 0
662 0 0 0
663 0 0 0
664 0 0 0
665 0 0 0
666 0 0 0
667 0 0 0
668 0 0 0
669 0 0 0
670 0 0 0
671 0 0 0
672 0 0 0
673 0 0 0
674 0 0 0
675 0 0 0
676 0 0 0
677 0 0 0
678 0 0 0
679 0 0 0
680 0 0 0
681 0 0 0
682 0 0 0
683 0 0 0
684 0 0 0
685 0 0 0
686 0 0 0
687 0 0 0
688 0 0 0
689 0 0 0
690 0 0 0
691 0 0 0
692 0 0 0
693 0 0 0
694 0 0 0
695 0 0 0
696 0 0 0
697 0 0 0
698 0 0 0
699 0 0 0
700 0 0 0
701 0 0 0
702 0 0 0
703 0 0 0
704 0 0 0
705 0 0 0
706 0 0 0
707 0 0 0
708 0 0 0
709 0 0 0
710 0 0 0
711 0 0 0
712 0 0 0
713 0 0 0
714 0 0 0
715 0 0 0
716 0 0 0
717 0 0 0
718 0 0 0
719 0 0 0
720 0 0 0
721 0 0 0
722 0 0 0
723 0 0 0
724 0 0 0
725 0 0 0
726 0 0 0
727 0 0 0
728 0 0 0
729 0 0 0
730 0 0 0
731 0 0 0
732 0 0 0
733 0 0 0
734 0 0 0
735 0 0 0
736 0 0 0
737 0 0 0
738 0 0 0
739 0 0 0
740 0 0 0
741 0 0 0
742 0 0 0
743 0 0 0
744 0 0 0
745 0 0 0
746 0 0 0
747 0 0 0
748 0 0 0
749 0 0 0
750 0 0 0
751 0 0 0
752 0 0 0
753 0 0 0
754 0 0 0
755 0 0 0
756 0 0 0
757 0 0 0
758 0 0 0
759 0 0 0
760 0 0 0
761 0 0 0
762 0 0 0
763 0 0 0
764 0 0 0
765 0 0 0
766 0 0 0
767 0 0 0
768 0 0 0
769 0 0 0
770 0 0 0
771 0 0 0
772 0 0 0
773 0 0 0
774 0 0 0
775 0 0 0
776 0 0 0
777 0 0 0
778 0 0 0
779 0 0 0
780 0 0 0
781 0 0 0
782 0 0 0
783 0 0 0
784 0 0 0
785 0 0 0
786 0 0 0
787 0 0 0
788 0 0 0
789 0 0 0
790 0 0 0
791 0 0 0
792 0 0 0
793 0 0 0
794 0 0 0
795 0 0 0
796 0 0 0
797 0 0 0
798 0 0 0
799 0 0 0
800 0 0 0
801 0 0 0
802 0 0 0
803 0 0 0
804 0 0 0
805 0 0 0
806 0 0 0
807 0 0 0
808 0 0 0
809 0 0 0
810 0 0 0
811 0 0 0
812 0 0 0
813 0 0 0
814 0 0 0
815 0 0 0
816 0 0 0
817 0 0 0
818 0 0 0
819 0 0 0
820 0 0 0
821 0 0 0
822 0 0 0
823 0 0 0
824 0 0 0
825 0 0 0
826 0 0 0
827 0 0 0
828 0 0 0
829 0 0 0
830 0 0 0
831 0 0 0
832 0 0 0
833 0 0 0
834 0 0 0
835 0 0 0
836 0 0 0
837 0 0 0
838 0 0 0
839 0 0 0
840 0 0 0
841 0 0 0
842 0 0 0
843 0 0 0
844 0 0 0
845 0 0 0
846 0 0 0
847 0 0 0
848 0 0 0
849 0 0 0
850 0 0 0
851 0 0 0
852 0 0 0
853 0 0 0
854 0 0 0
855 0 0 0
856 0 0 0
857 0 0 0
858 0 0 0
859 0 0 0
860 0 0 0
861 0 0 0
862 0 0 0
863 0 0 0
864 0 0 0
865 0 0 0
866 0 0 0
867 0 0 0
868 0 0 0
869 0 0 0
870 0 0 0
871 0 0 0
872 0 0 0
873 0 0 0
874 0 0 0
875 0 0 0
876 0 0 0
877 0 0 0
878 0 0 0
879 0 0 0
880 0 0 0
881 0 0 0
882 0 0 0
883 0 0 0
884 0 0 0
885 0 0 0
886 0 0 0
887 0 0 0
888 0 0 0
889 0 0 0
890 0 0 0
891 0 0 0
892 0 0 0
893 0 0 0
894 0 0 0
895 0 0 0
896 0 0 0
897 0 0 0
898 0 0 0
899 0 0 0
900 0 0 0
901 0 0 0
902 0 0 0
903 0 0 0
904 0 0 0
905 0 0 0
906 0 0 0
907 0 0 0
908 0 0 0
909 0 0 0
910 0 0 0
911 0 0 0
912 0 0 0
913 0 0 0
914 0 0 0
915 0 0 0
916 0 0 0
917 0 0 0
918 0 0 0
919 0 0 0
920 0 0 0
921 0 0 0
922 0 0 0
923 0 0 0
924 0 0 0
925 0 0 0
926 0 0 0
927 0 0 0
928 0 0 0
929 0 0 0
930 0 0 0
931 0 0 0
932 0 0 0
933 0 0 0
934 0 0 0
935 0 0 0
936 0 0 0
937 0 0 0
938 0 0 0
939 0 0 0
940 0 0 0
941 0 0 0
942 0 0 0
943 0 0 0
944 0 0 0
945 0 0 0
946 0 0 0
947 0 0 0
948 0 0 0
949 0 0 0
950 0 0 0
951 0 0 0
952 0 0 0
953 0 0 0
954 0 0 0
955 0 0 0
956 0 0 0
957 0 0 0
958 0 0 0
959 0 0 0
960 0 0 0
961 0 0 0
962 0 0 0
963 0 0 0
964 0 0 0
965 0 0 0
966 0 0 0
967 0 0 0
968 0 0 0
969 0 0 0
970 0 0 0
971 0 0 0
972 0 0 0
973 0 0 0
974 0 0 0
975 0 0 0
976 0 0 0
977 0 0 0
978 0 0 0
979 0 0 0
980 0 0 0
981 0 0 0
982 0 0 0
983 0 0 0
984 0 0 0
985 0 0 0
986 0 0 0
987 0 0 0
988 0 0 0
989 0 0 0
990 0 0 0
991 0 0 0
992 0 0 0
993 0 0 0
994 0 0 0
995 0 0 0
996 0 0 0
997 0 0 0
998 0 0 0
999 0 0 0
1000 0 0 0
